HEADER
"PSFversion" "1.00"
"a_9_6#v" "a_9_6__v"
"Av" "av"
"Bv" "bv"
"Yv" "yv"
"a_2_6#v" "a_2_6__v"
