HEADER
"PSFversion" "1.00"
"a_2_6#v" "a_2_6__v"
"Yv" "yv"
"Av" "av"
