HEADER
"PSFversion" "1.00"
"fullsystemv" "xfullsystemv"
"fullsystemn" "fullsystem"
