HEADER
"PSFversion" "1.00"
"Yv" "yv"
"Av" "av"
