HEADER
"PSFversion" "1.00"
"talker_str_1xfsm_unitxU12v" "xtalker_str_1xfsm_unitxu12v"
"talker_str_1xfsm_unitxU13v" "xtalker_str_1xfsm_unitxu13v"
"talker_str_1xfsm_unitxU12n" "NOR2X1"
"talker_str_1xsync_unitxmeta_reg_regv" "xtalker_str_1xsync_unitxmeta_reg_regv"
"talker_str_1xfsm_unitxU13n" "XOR2X1"
"talker_str_1xsync_unitxsync_reg_regv" "xtalker_str_1xsync_unitxsync_reg_regv"
"listener_str_1xsync_unitxsync_reg_regv" "xlistener_str_1xsync_unitxsync_reg_regv"
"listener_str_1xfsm_unitxack_buf_reg_regv" "xlistener_str_1xfsm_unitxack_buf_reg_regv"
"listener_str_1xsync_unitxmeta_reg_regv" "xlistener_str_1xsync_unitxmeta_reg_regv"
"talker_str_1xfsm_unitxreq_buf_reg_regv" "xtalker_str_1xfsm_unitxreq_buf_reg_regv"
"talker_str_1xfsm_unitxstate_reg_regx1xv" "xtalker_str_1xfsm_unitxstate_reg_regx1xv"
"talker_str_1xfsm_unitxstate_reg_regx0xv" "xtalker_str_1xfsm_unitxstate_reg_regx0xv"
"U13v" "xu13v"
"talker_str_1xsync_unitxmeta_reg_regn talker_str_1xsync_unitxsync_reg_regn listener_str_1xsync_unitxsync_reg_regn listener_str_1xfsm_unitxack_buf_reg_regn listener_str_1xsync_unitxmeta_reg_regn talker_str_1xfsm_unitxreq_buf_reg_regn talker_str_1xfsm_unitxstate_reg_regx1xn talker_str_1xfsm_unitxstate_reg_regx0xn" "DFFSR"
"U8v" "xu8v"
"U14v" "xu14v"
"U6v" "xu6v"
"U5v" "xu5v"
"U2v" "xu2v"
"U3v" "xu3v"
"U20v" "xu20v"
"U19v" "xu19v"
"U17v" "xu17v"
"U23v" "xu23v"
"U22v" "xu22v"
"U16v" "xu16v"
"talker_str_1xfsm_unitxU5v" "xtalker_str_1xfsm_unitxu5v"
"listener_str_1xsync_unitxU4v" "xlistener_str_1xsync_unitxu4v"
"U7v" "xu7v"
"U13n U8n U14n U6n U5n U2n U3n U20n U19n U17n U23n U22n U16n talker_str_1xfsm_unitxU5n listener_str_1xsync_unitxU4n" "INVX1"
"talker_str_1xfsm_unitxU11v" "xtalker_str_1xfsm_unitxu11v"
"U7n" "AND2X2"
"U1v" "xu1v"
"talker_str_1xfsm_unitxU11n" "AOI22X1"
"U1n" "OR2X2"
"clk1v" "(FUNCTION (plus (root \"listener_str_1xsync_unitxmeta_reg_reg/CLK\") (root \"listener_str_1xsync_unitxsync_reg_reg/CLK\") (root \"listener_str_1xfsm_unitxack_buf_reg_reg/CLK\")))v"
"clk2v" "(FUNCTION (plus (root \"talker_str_1xfsm_unitxreq_buf_reg_reg/CLK\") (root \"talker_str_1xsync_unitxmeta_reg_reg/CLK\") (root \"talker_str_1xsync_unitxsync_reg_reg/CLK\") (root \"talker_str_1xfsm_unitxstate_reg_regx1x/CLK\") (root \"talker_str_1xfsm_unitxstate_reg_regx0x/CLK\")))v"
"reset1v" "(FUNCTION (plus (root \"listener_str_1xsync_unitxU4/A\")))v"
"reset2v" "(FUNCTION (plus (root \"talker_str_1xfsm_unitxU5/A\")))v"
"startv" "(FUNCTION (plus (root \"talker_str_1xfsm_unitxU11/C\")))v"
"readyv" "(FUNCTION (plus (root \"talker_str_1xfsm_unitxU12/Y\")))v"
"rcvv" "(FUNCTION (plus (root \"talker_str_1xsync_unitxsync_reg_reg/Q\") (root \"U13/A\") (root \"U7/A\")))v"
