HEADER
"PSFversion" "1.00"
"VDD!v" "vdd!v"
