HEADER
"PSFversion" "1.00"
"a_9_54#v" "a_9_54__v"
"Av" "av"
"Yv" "yv"
"Bv" "bv"
