HEADER
"PSFversion" "1.00"
"clk2__L2_I0v" "xclk2__l2_i0v"
"clk1__L2_I0v" "xclk1__l2_i0v"
"clk2__L1_I0v" "xclk2__l1_i0v"
"clk2__L2_I0n clk1__L2_I0n" "INVX4"
"clk1__L1_I0v" "xclk1__l1_i0v"
"U14v" "xu14v"
"clk2__L1_I0n clk1__L1_I0n" "INVX8"
"U13v" "xu13v"
"U8v" "xu8v"
"FE_OCP_RBC1_reset1v" "xfe_ocp_rbc1_reset1v"
"talker_str_1xfsm_unitxU13v" "xtalker_str_1xfsm_unitxu13v"
"U14n U13n U8n FE_OCP_RBC1_reset1n" "INVX1"
"talker_str_1xfsm_unitxU12v" "xtalker_str_1xfsm_unitxu12v"
"talker_str_1xfsm_unitxU13n" "XOR2X1"
"talker_str_1xfsm_unitxU11v" "xtalker_str_1xfsm_unitxu11v"
"talker_str_1xfsm_unitxU12n" "NOR2X1"
"talker_str_1xfsm_unitxU5v" "xtalker_str_1xfsm_unitxu5v"
"talker_str_1xfsm_unitxU11n" "AOI22X1"
"talker_str_1xsync_unitxmeta_reg_regv" "xtalker_str_1xsync_unitxmeta_reg_regv"
"talker_str_1xfsm_unitxU5n" "INVX2"
"talker_str_1xsync_unitxsync_reg_regv" "xtalker_str_1xsync_unitxsync_reg_regv"
"listener_str_1xfsm_unitxack_buf_reg_regv" "xlistener_str_1xfsm_unitxack_buf_reg_regv"
"listener_str_1xsync_unitxmeta_reg_regv" "xlistener_str_1xsync_unitxmeta_reg_regv"
"listener_str_1xsync_unitxsync_reg_regv" "xlistener_str_1xsync_unitxsync_reg_regv"
"talker_str_1xfsm_unitxstate_reg_regx0xv" "xtalker_str_1xfsm_unitxstate_reg_regx0xv"
"talker_str_1xfsm_unitxstate_reg_regx1xv" "xtalker_str_1xfsm_unitxstate_reg_regx1xv"
"talker_str_1xfsm_unitxreq_buf_reg_regv" "xtalker_str_1xfsm_unitxreq_buf_reg_regv"
"U1v" "xu1v"
"talker_str_1xsync_unitxmeta_reg_regn talker_str_1xsync_unitxsync_reg_regn listener_str_1xfsm_unitxack_buf_reg_regn listener_str_1xsync_unitxmeta_reg_regn listener_str_1xsync_unitxsync_reg_regn talker_str_1xfsm_unitxstate_reg_regx0xn talker_str_1xfsm_unitxstate_reg_regx1xn talker_str_1xfsm_unitxreq_buf_reg_regn" "DFFSR"
"U7v" "xu7v"
"U1n" "OR2X2"
"U10v" "xu10v"
"U7n" "AND2X2"
"U10n" "BUFX2"
"readyv" "(FUNCTION (plus (root \"talker_str_1xfsm_unitxU12/Y\")))v"
"rcvv" "(FUNCTION (plus (root \"U13/A\") (root \"U7/A\") (root \"U10/Y\")))v"
"clk1v" "(FUNCTION (plus (root \"clk1__L1_I0/A\")))v"
"clk2v" "(FUNCTION (plus (root \"clk2__L1_I0/A\")))v"
"reset1v" "(FUNCTION (plus (root \"FE_OCP_RBC1_reset1/A\")))v"
"reset2v" "(FUNCTION (plus (root \"talker_str_1xfsm_unitxU5/A\")))v"
"startv" "(FUNCTION (plus (root \"talker_str_1xfsm_unitxU11/C\")))v"
