HEADER
"PSFversion" "1.00"
"a_28_6#v" "a_28_6__v"
"a_11_6#v" "a_11_6__v"
"Cv" "cv"
"Dv" "dv"
"Yv" "yv"
"Av" "av"
"Bv" "bv"
"a_2_54#v" "a_2_54__v"
