HEADER
"PSFversion" "1.00"
"a_26_6#v" "a_26_6__v"
"a_146_6#v" "a_146_6__v"
"a_10_6#v" "a_10_6__v"
"a_122_6#v" "a_122_6__v"
"a_113_6#v" "a_113_6__v"
"a_105_6#v" "a_105_6__v"
"a_57_6#v" "a_57_6__v"
"a_47_71#v" "a_47_71__v"
"a_23_27#v" "a_23_27__v"
"a_10_61#v" "a_10_61__v"
"a_130_6#v" "a_130_6__v"
"a_47_4#v" "a_47_4__v"
"Dv" "dv"
"Sv" "sv"
"Rv" "rv"
"Qv" "qv"
"CLKv" "clkv"
"a_2_6#v" "a_2_6__v"
