HEADER
"PSFversion" "1.00"
"a_13_43#v" "a_13_43__v"
"a_35_6#v" "a_35_6__v"
"a_18_54#v" "a_18_54__v"
"a_35_54#v" "a_35_54__v"
"Yv" "yv"
"a_18_6#v" "a_18_6__v"
"Bv" "bv"
"Av" "av"
"a_2_6#v" "a_2_6__v"
